 Gaussian 09, Revision A.02,
 Gaussian 09:  EM64M-G09RevA.02 11-Jun-2009

 ---------------------------------------
 # opt=calcfc freq hf/3-21g symmetry=com
 ---------------------------------------

 -----------
 24_reactant
 -----------
 Symbolic Z-matrix:
 Charge =  0 Multiplicity = 1

 SCF Done:  E(RHF) =  -93.4903939142     A.U. after   11 cycles
 SCF Done:  E(RHF) =  -93.4947405013     A.U. after   11 cycles
 SCF Done:  E(RHF) =  -93.4947799228     A.U. after   13 cycles
 SCF Done:  E(RHF) =  -93.4947806148     A.U. after   13 cycles
 Optimization completed.
    -- Stationary point found.
 Normal termination of Gaussian 09 at Fri Oct 21 16:08:37 2016.

 --------------------------------------------------------------
 #N Geom=AllCheck Guess=TCheck SCRF=Check GenChk RHF/3-21G Freq
 --------------------------------------------------------------

 24_reactant
 -----------
 Redundant internal coordinates taken from checkpoint file:
 r.chk
 Charge =  0 Multiplicity = 1

                         Standard orientation:
 ---------------------------------------------------------------------
 Center     Atomic      Atomic             Coordinates (Angstroms)
 Number     Number       Type             X           Y           Z
 ---------------------------------------------------------------------
      1          1           0       -0.890111   -1.059458    0.000000
      2          7           0        0.030010   -0.631723    0.000000
      3          6           0        0.030010    0.624706    0.000000
      4          1           0        0.967677    1.149736    0.000000
      5          1           0       -0.851865    1.248828    0.000000
 ---------------------------------------------------------------------

 SCF Done:  E(RHF) =  -93.4947806148     A.U. after    1 cycles

 The electronic state is 1-A'.
 Alpha  occ. eigenvalues --  -15.48497 -11.21893  -1.22173  -0.84346  -0.68757
 Alpha  occ. eigenvalues --   -0.60735  -0.44811  -0.40711
 Alpha virt. eigenvalues --    0.17755   0.27773   0.31254   0.38454   0.53446
 Alpha virt. eigenvalues --    0.97636   1.00211   1.03678   1.16182   1.26701
 Alpha virt. eigenvalues --    1.33757   1.45709   1.55614   1.64264   1.75312

 Mulliken atomic charges:
              1
     1  H    0.291843
     2  N   -0.580294
     3  C   -0.110316
     4  H    0.216211
     5  H    0.182555
 Sum of Mulliken atomic charges =   0.00000

 Dipole moment (field-independent basis, Debye):
    X=             -1.6889    Y=              1.4410    Z=              0.0000  Tot=              2.2202
 Quadrupole moment (field-independent basis, Debye-Ang):
   XX=            -11.5923   YY=            -12.3544   ZZ=            -13.4735
   XY=              2.1825   XZ=              0.0000   YZ=              0.0000

  Exact polarizability:  14.507   2.396  23.558   0.000   0.000   5.565
 Approx polarizability:  11.410   1.097  21.188   0.000   0.000   4.499

                     1                      2                      3
                    A'                     A"                     A"
 Frequencies --  1173.5170              1234.3763              1285.2249
 Red. masses --     1.0680                 1.3560                 1.0836
 Frc consts  --     0.8666                 1.2173                 1.0546
 IR Inten    --    55.5561                26.9867                63.4881
 Raman Activ --     3.9958                 0.1489                 0.1770

                     4                      5                      6
                    A'                     A'                     A'
 Frequencies --  1483.5336              1640.9144              1848.7473
 Red. masses --     1.4293                 1.2772                 3.3682
 Frc consts  --     1.8534                 2.0261                 6.7827
 IR Inten    --    74.5170                 9.0813                13.4080
 Raman Activ --     5.0029                24.0643                 8.4997

                     7                      8                      9
                    A'                     A'                     A'
 Frequencies --  3225.3582              3327.2573              3575.1848
 Red. masses --     1.0657                 1.1064                 1.0765
 Frc consts  --     6.5320                 7.2164                 8.1073
 IR Inten    --    30.0253                42.3275                 1.1334
 Raman Activ --    85.2130                85.0986               122.6038

 - Thermochemistry -
 -------------------
 Temperature   298.150 Kelvin.  Pressure   1.00000 Atm.
 Atom     1 has atomic number  1 and mass   1.00783

 Molecular mass:    29.02655 amu.
 Principal axes and moments of inertia in atomic units:
                           1         2         3
     Eigenvalues --     8.64062  51.36610  60.00672
           X            0.08042   0.99676   0.00000
           Y            0.99676  -0.08042   0.00000
           Z            0.00000   0.00000   1.00000
 This molecule is an asymmetric top.
 Rotational symmetry number  1.
 Rotational temperatures (Kelvin)     10.02403     1.68621     1.44340
 Rotational constants (GHZ):         208.86716    35.13487    30.07565
 Zero-point vibrational energy     112413.8 (Joules/Mol)
                                   26.86753 (Kcal/Mol)
 Vibrational temperatures:   1688.43  1775.99  1849.15  2134.47  2360.91
          (Kelvin)           2659.93  4640.57  4787.18  5143.89

 Zero-point correction=                           0.042816 (Hartree/Particle)
 Thermal correction to Energy=                    0.045703
 Thermal correction to Enthalpy=                  0.046647
 Thermal correction to Gibbs Free Energy=         0.020947
 Sum of electronic and zero-point Energies=            -93.451964
 Sum of electronic and thermal Energies=               -93.449078
 Sum of electronic and thermal Enthalpies=             -93.448134
 Sum of electronic and thermal Free Energies=          -93.473834

                     E (Thermal)             CV                S
                      KCal/Mol        Cal/Mol-Kelvin    Cal/Mol-Kelvin
 Total                   28.679              6.669             54.091
 Electronic               0.000              0.000              0.000
 Translational            0.889              2.981             36.031
 Rotational               0.889              2.981             17.928
 Vibrational             26.902              0.708              0.133

 Optimization completed.
    -- Stationary point found.
 Normal termination of Gaussian 09 at Fri Oct 21 16:09:12 2016.
